{
    "Acentric_Factor": 0.280,
    "BO_BSW": 0.0,
    "BO_GOR": 0.0,
    "BO_OilVisc1": 0.0,
    "BO_OilVisc2": 0.0,
    "BO_OilViscTemp1": 0.0,
    "BO_OilViscTemp2": 0.0,
    "BO_PNA_A": 0.0,
    "BO_PNA_N": 0.0,
    "BO_PNA_P": 0.0,
    "BO_SGG": 0.0,
    "BO_SGO": 0.0,
    "CAS_Number": "98-87-3",
    "Chao_Seader_Acentricity": 0.280,
    "Chao_Seader_Liquid_Molar_Volume": 112.3,
    "Chao_Seader_Solubility_Parameter": 11.5,
    "Charge": 0,
    "ChemicalStructure": "C6H5CHCl2",
    "Comments": "Benzal chloride thermophysical properties",
    "CompCreatorStudyFile": "",
    "COSMODBName": null,
    "Critical_Compressibility": 0.265,
    "Critical_Pressure": 4600000.0,
    "Critical_Temperature": 653.15,
    "Critical_Volume": 0.280,
    "CurrentDB": "User",
    "Dipole_Moment": 1.75,
    "Electrolyte_Cp0": 0.0,
    "Electrolyte_DelGF": -55.0,
    "Electrolyte_DelHF": -20.0,
    "EnthalpyOfFusionAtTf": 12.0,
    "Formula": "C7H6Cl2",
    "HVap_A": 45.2,
    "HVap_B": 0.0,
    "HVap_C": 0.0,
    "HVap_D": 0.0,
    "HVap_E": 0.0,
    "HVap_TMAX": 653.15,
    "HVap_TMIN": 225.0,
    "HydrationNumber": 0.0,
    "ID": 0,
    "Ideal_Gas_Heat_Capacity_Const_A": 30.12,
    "Ideal_Gas_Heat_Capacity_Const_B": 0.125,
    "Ideal_Gas_Heat_Capacity_Const_C": -3.8e-5,
    "Ideal_Gas_Heat_Capacity_Const_D": 5.0e-9,
    "Ideal_Gas_Heat_Capacity_Const_E": 0.0,
    "IG_Enthalpy_of_Formation_25C": -15.3,
    "IG_Entropy_of_Formation_25C": 235.0,
    "IG_Gibbs_Energy_of_Formation_25C": -50.1,
    "InChI": "InChI=1S/C7H6Cl2/c8-5-7-3-1-2-4-6(7)9/h1-4H,5H2",
    "Liquid_Density_Const_A": 1.254,
    "Liquid_Density_Const_B": 0.0,
    "Liquid_Density_Const_C": 0.0,
    "Liquid_Density_Const_D": 0.0,
    "Liquid_Density_Const_E": 0.0,
    "Liquid_Density_Tmax": 653.15,
    "Liquid_Density_Tmin": 225.0,
    "Liquid_Heat_Capacity_Const_A": 140.0,
    "Liquid_Heat_Capacity_Const_B": 0.48,
    "Liquid_Heat_Capacity_Const_C": -0.00022,
    "Liquid_Heat_Capacity_Const_D": 3.5e-8,
    "Liquid_Heat_Capacity_Const_E": 0.0,
    "Liquid_Viscosity_Const_A": 0.85,
    "Liquid_Viscosity_Const_B": 1250,
    "Molar_Weight": 161.03,
    "Name": "Benzal Chloride",
    "Normal_Boiling_Point": 447.0,
    "Surface_Tension_Const_A": 32.5,
    "Surface_Tension_Const_B": -0.16,
    "Surface_Tension_Tmax": 653.15,
    "Surface_Tension_Tmin": 225.0,
    "Vapor_Pressure_Constant_A": 4.8,
    "Vapor_Pressure_Constant_B": 1250,
    "Vapor_Pressure_Constant_C": -100,
    "Vapor_Pressure_TMAX": 653.15,
    "Vapor_Pressure_TMIN": 225.0,
    "Vapor_Viscosity_Const_A": 0.00012,
    "Vapor_Viscosity_Const_B": 1.6e-6,
    "Elements": {
      "C": 7.0,
      "Cl": 2.0,
      "H": 6.0
    },
    "LennardJonesDiameter": 5.5,
    "LennardJonesEnergy": 500.0,
    "Parachor": 230.0
  }
  